d 0.002586 1 2 tcp 1500 ------- 0 0.0 2.0 154 235
d 0.002598 1 2 tcp 1500 ------- 0 0.0 2.0 156 238
d 0.00261 1 2 tcp 1500 ------- 0 0.0 2.0 158 241
d 0.002622 1 2 tcp 1500 ------- 0 0.0 2.0 160 244
d 0.002634 1 2 tcp 1500 ------- 0 0.0 2.0 162 247
d 0.002646 1 2 tcp 1500 ------- 0 0.0 2.0 164 250
d 0.002658 1 2 tcp 1500 ------- 0 0.0 2.0 166 253
d 0.00267 1 2 tcp 1500 ------- 0 0.0 2.0 168 256
d 0.002682 1 2 tcp 1500 ------- 0 0.0 2.0 170 259
d 0.002694 1 2 tcp 1500 ------- 0 0.0 2.0 172 262
d 0.002706 1 2 tcp 1500 ------- 0 0.0 2.0 174 265
d 0.002718 1 2 tcp 1500 ------- 0 0.0 2.0 176 268
d 0.00273 1 2 tcp 1500 ------- 0 0.0 2.0 178 271
d 0.002742 1 2 tcp 1500 ------- 0 0.0 2.0 180 274
d 0.002754 1 2 tcp 1500 ------- 0 0.0 2.0 182 277
d 0.002766 1 2 tcp 1500 ------- 0 0.0 2.0 184 280
d 0.002778 1 2 tcp 1500 ------- 0 0.0 2.0 186 283
d 0.00279 1 2 tcp 1500 ------- 0 0.0 2.0 188 286
d 0.002802 1 2 tcp 1500 ------- 0 0.0 2.0 190 289
d 0.002814 1 2 tcp 1500 ------- 0 0.0 2.0 192 292
d 0.002826 1 2 tcp 1500 ------- 0 0.0 2.0 194 295
d 0.002838 1 2 tcp 1500 ------- 0 0.0 2.0 196 298
d 0.00285 1 2 tcp 1500 ------- 0 0.0 2.0 198 301
d 0.002862 1 2 tcp 1500 ------- 0 0.0 2.0 200 304
d 0.002874 1 2 tcp 1500 ------- 0 0.0 2.0 202 307
d 0.002886 1 2 tcp 1500 ------- 0 0.0 2.0 204 310
d 0.002898 1 2 tcp 1500 ------- 0 0.0 2.0 206 313
d 0.00291 1 2 tcp 1500 ------- 0 0.0 2.0 208 316
d 0.002922 1 2 tcp 1500 ------- 0 0.0 2.0 210 319
d 0.002934 1 2 tcp 1500 ------- 0 0.0 2.0 212 322
d 0.002946 1 2 tcp 1500 ------- 0 0.0 2.0 214 325
d 0.002958 1 2 tcp 1500 ------- 0 0.0 2.0 216 328
d 0.00297 1 2 tcp 1500 ------- 0 0.0 2.0 218 331
d 0.002982 1 2 tcp 1500 ------- 0 0.0 2.0 220 334
d 0.002994 1 2 tcp 1500 ------- 0 0.0 2.0 222 337
d 0.003006 1 2 tcp 1500 ------- 0 0.0 2.0 224 340
d 0.003018 1 2 tcp 1500 ------- 0 0.0 2.0 226 343
d 0.00303 1 2 tcp 1500 ------- 0 0.0 2.0 228 346
d 0.003042 1 2 tcp 1500 ------- 0 0.0 2.0 230 349
d 0.003054 1 2 tcp 1500 ------- 0 0.0 2.0 232 352
d 0.003066 1 2 tcp 1500 ------- 0 0.0 2.0 234 355
d 0.003078 1 2 tcp 1500 ------- 0 0.0 2.0 236 358
d 0.00309 1 2 tcp 1500 ------- 0 0.0 2.0 238 361
d 0.003102 1 2 tcp 1500 ------- 0 0.0 2.0 240 364
d 0.003114 1 2 tcp 1500 ------- 0 0.0 2.0 242 367
d 0.003126 1 2 tcp 1500 ------- 0 0.0 2.0 244 370
d 0.003138 1 2 tcp 1500 ------- 0 0.0 2.0 246 373
d 0.00315 1 2 tcp 1500 ------- 0 0.0 2.0 248 376
d 0.003162 1 2 tcp 1500 ------- 0 0.0 2.0 250 379
d 0.003174 1 2 tcp 1500 ------- 0 0.0 2.0 252 382
d 0.003186 1 2 tcp 1500 ------- 0 0.0 2.0 254 385
d 0.003198 1 2 tcp 1500 ------- 0 0.0 2.0 256 388
d 0.00321 1 2 tcp 1500 ------- 0 0.0 2.0 258 391
d 0.003222 1 2 tcp 1500 ------- 0 0.0 2.0 260 394
d 0.003234 1 2 tcp 1500 ------- 0 0.0 2.0 262 397
d 0.003246 1 2 tcp 1500 ------- 0 0.0 2.0 264 400
d 0.003258 1 2 tcp 1500 ------- 0 0.0 2.0 266 403
d 0.00327 1 2 tcp 1500 ------- 0 0.0 2.0 268 406
d 0.003282 1 2 tcp 1500 ------- 0 0.0 2.0 270 409
d 0.003294 1 2 tcp 1500 ------- 0 0.0 2.0 272 412
d 0.003306 1 2 tcp 1500 ------- 0 0.0 2.0 274 415
d 0.003318 1 2 tcp 1500 ------- 0 0.0 2.0 276 418
d 0.00333 1 2 tcp 1500 ------- 0 0.0 2.0 278 421
d 0.003342 1 2 tcp 1500 ------- 0 0.0 2.0 280 424
d 0.003354 1 2 tcp 1500 ------- 0 0.0 2.0 282 427
d 0.003366 1 2 tcp 1500 ------- 0 0.0 2.0 284 430
d 0.003378 1 2 tcp 1500 ------- 0 0.0 2.0 286 433
d 0.00339 1 2 tcp 1500 ------- 0 0.0 2.0 288 436
d 0.003402 1 2 tcp 1500 ------- 0 0.0 2.0 290 439
d 0.003414 1 2 tcp 1500 ------- 0 0.0 2.0 292 442
d 0.003426 1 2 tcp 1500 ------- 0 0.0 2.0 294 445
d 0.003438 1 2 tcp 1500 ------- 0 0.0 2.0 296 448
d 0.00345 1 2 tcp 1500 ------- 0 0.0 2.0 298 451
d 0.003462 1 2 tcp 1500 ------- 0 0.0 2.0 300 454
d 0.003474 1 2 tcp 1500 ------- 0 0.0 2.0 302 457
d 0.003486 1 2 tcp 1500 ------- 0 0.0 2.0 304 460
d 0.003498 1 2 tcp 1500 ------- 0 0.0 2.0 306 463
d 0.00351 1 2 tcp 1500 ------- 0 0.0 2.0 308 466
d 0.033322 1 2 tcp 1500 ------- 0 0.0 2.0 1619 3261
d 0.033323 1 2 tcp 1500 ------- 0 0.0 2.0 1620 3262
d 0.033324 1 2 tcp 1500 ------- 0 0.0 2.0 1621 3263
d 0.033325 1 2 tcp 1500 ------- 0 0.0 2.0 1622 3264
d 0.033326 1 2 tcp 1500 ------- 0 0.0 2.0 1623 3265
d 0.033328 1 2 tcp 1500 ------- 0 0.0 2.0 1624 3266
d 0.03333 1 2 tcp 1500 ------- 0 0.0 2.0 1626 3268
d 0.033331 1 2 tcp 1500 ------- 0 0.0 2.0 1627 3269
d 0.033332 1 2 tcp 1500 ------- 0 0.0 2.0 1628 3270
d 0.033334 1 2 tcp 1500 ------- 0 0.0 2.0 1629 3271
d 0.033335 1 2 tcp 1500 ------- 0 0.0 2.0 1630 3272
d 0.033336 1 2 tcp 1500 ------- 0 0.0 2.0 1631 3273
d 0.033337 1 2 tcp 1500 ------- 0 0.0 2.0 1632 3274
d 0.033338 1 2 tcp 1500 ------- 0 0.0 2.0 1633 3275
d 0.03334 1 2 tcp 1500 ------- 0 0.0 2.0 1634 3276
d 0.033342 1 2 tcp 1500 ------- 0 0.0 2.0 1636 3278
d 0.033343 1 2 tcp 1500 ------- 0 0.0 2.0 1637 3279
d 0.033344 1 2 tcp 1500 ------- 0 0.0 2.0 1638 3280
d 0.033346 1 2 tcp 1500 ------- 0 0.0 2.0 1639 3281
d 0.033347 1 2 tcp 1500 ------- 0 0.0 2.0 1640 3282
d 0.069981 1 2 tcp 1500 ------- 0 0.0 2.0 4627 9279
d 0.099465 1 2 tcp 1500 ------- 0 0.0 2.0 7084 14194
d 0.128949 1 2 tcp 1500 ------- 0 0.0 2.0 9541 19109
d 0.158433 1 2 tcp 1500 ------- 0 0.0 2.0 11998 24024
d 0.187917 1 2 tcp 1500 ------- 0 0.0 2.0 14455 28939
d 0.217401 1 2 tcp 1500 ------- 0 0.0 2.0 16912 33854
d 0.246885 1 2 tcp 1500 ------- 0 0.0 2.0 19369 38769
d 0.276369 1 2 tcp 1500 ------- 0 0.0 2.0 21826 43684
d 0.305853 1 2 tcp 1500 ------- 0 0.0 2.0 24283 48599
d 0.335337 1 2 tcp 1500 ------- 0 0.0 2.0 26740 53514
d 0.364821 1 2 tcp 1500 ------- 0 0.0 2.0 29197 58429
d 0.394305 1 2 tcp 1500 ------- 0 0.0 2.0 31654 63344
d 0.423789 1 2 tcp 1500 ------- 0 0.0 2.0 34111 68259
d 0.453273 1 2 tcp 1500 ------- 0 0.0 2.0 36568 73174
d 0.482757 1 2 tcp 1500 ------- 0 0.0 2.0 39025 78089
d 0.512241 1 2 tcp 1500 ------- 0 0.0 2.0 41482 83004
d 0.541725 1 2 tcp 1500 ------- 0 0.0 2.0 43939 87919
d 0.571209 1 2 tcp 1500 ------- 0 0.0 2.0 46396 92834
d 0.600693 1 2 tcp 1500 ------- 0 0.0 2.0 48853 97749
d 0.630177 1 2 tcp 1500 ------- 0 0.0 2.0 51310 102664
d 0.659661 1 2 tcp 1500 ------- 0 0.0 2.0 53767 107579
d 0.689145 1 2 tcp 1500 ------- 0 0.0 2.0 56224 112494
d 0.718629 1 2 tcp 1500 ------- 0 0.0 2.0 58681 117409
d 0.748113 1 2 tcp 1500 ------- 0 0.0 2.0 61138 122324
d 0.777597 1 2 tcp 1500 ------- 0 0.0 2.0 63595 127239
d 0.807081 1 2 tcp 1500 ------- 0 0.0 2.0 66052 132154
d 0.836565 1 2 tcp 1500 ------- 0 0.0 2.0 68509 137069
d 0.866049 1 2 tcp 1500 ------- 0 0.0 2.0 70966 141984
d 0.895533 1 2 tcp 1500 ------- 0 0.0 2.0 73423 146899
d 0.925017 1 2 tcp 1500 ------- 0 0.0 2.0 75880 151814
d 0.954501 1 2 tcp 1500 ------- 0 0.0 2.0 78337 156729
d 0.983985 1 2 tcp 1500 ------- 0 0.0 2.0 80794 161644
d 1.013469 1 2 tcp 1500 ------- 0 0.0 2.0 83251 166559
d 1.042953 1 2 tcp 1500 ------- 0 0.0 2.0 85708 171474
d 1.072437 1 2 tcp 1500 ------- 0 0.0 2.0 88165 176389
d 1.101921 1 2 tcp 1500 ------- 0 0.0 2.0 90622 181304
d 1.131405 1 2 tcp 1500 ------- 0 0.0 2.0 93079 186219
d 1.160889 1 2 tcp 1500 ------- 0 0.0 2.0 95536 191134
d 1.190373 1 2 tcp 1500 ------- 0 0.0 2.0 97993 196049
d 1.219857 1 2 tcp 1500 ------- 0 0.0 2.0 100450 200964
d 1.249341 1 2 tcp 1500 ------- 0 0.0 2.0 102907 205879
d 1.278825 1 2 tcp 1500 ------- 0 0.0 2.0 105364 210794
d 1.308309 1 2 tcp 1500 ------- 0 0.0 2.0 107821 215709
d 1.337793 1 2 tcp 1500 ------- 0 0.0 2.0 110278 220624
d 1.367277 1 2 tcp 1500 ------- 0 0.0 2.0 112735 225539
d 1.396761 1 2 tcp 1500 ------- 0 0.0 2.0 115192 230454
d 1.426245 1 2 tcp 1500 ------- 0 0.0 2.0 117649 235369
d 1.455561 1 2 tcp 1500 ------- 0 0.0 2.0 120092 240256
d 1.484577 1 2 tcp 1500 ------- 0 0.0 2.0 122510 245093
d 1.513593 1 2 tcp 1500 ------- 0 0.0 2.0 124928 249930
d 1.542609 1 2 tcp 1500 ------- 0 0.0 2.0 127346 254767
d 1.571625 1 2 tcp 1500 ------- 0 0.0 2.0 129764 259604
d 1.600641 1 2 tcp 1500 ------- 0 0.0 2.0 132182 264441
d 1.629657 1 2 tcp 1500 ------- 0 0.0 2.0 134600 269278
d 1.658673 1 2 tcp 1500 ------- 0 0.0 2.0 137018 274115
d 1.687689 1 2 tcp 1500 ------- 0 0.0 2.0 139436 278952
d 1.716705 1 2 tcp 1500 ------- 0 0.0 2.0 141854 283789
d 1.745721 1 2 tcp 1500 ------- 0 0.0 2.0 144272 288626
d 1.774737 1 2 tcp 1500 ------- 0 0.0 2.0 146690 293463
d 1.803753 1 2 tcp 1500 ------- 0 0.0 2.0 149108 298300
d 1.832769 1 2 tcp 1500 ------- 0 0.0 2.0 151526 303137
d 1.861785 1 2 tcp 1500 ------- 0 0.0 2.0 153944 307974
d 1.890801 1 2 tcp 1500 ------- 0 0.0 2.0 156362 312811
d 1.919817 1 2 tcp 1500 ------- 0 0.0 2.0 158780 317648
d 1.948833 1 2 tcp 1500 ------- 0 0.0 2.0 161198 322485
d 1.977849 1 2 tcp 1500 ------- 0 0.0 2.0 163616 327322
d 2.006865 1 2 tcp 1500 ------- 0 0.0 2.0 166034 332159
d 2.035881 1 2 tcp 1500 ------- 0 0.0 2.0 168452 336996
d 2.064897 1 2 tcp 1500 ------- 0 0.0 2.0 170870 341833
d 2.093913 1 2 tcp 1500 ------- 0 0.0 2.0 173288 346670
d 2.122929 1 2 tcp 1500 ------- 0 0.0 2.0 175706 351507
d 2.151945 1 2 tcp 1500 ------- 0 0.0 2.0 178124 356344
d 2.180961 1 2 tcp 1500 ------- 0 0.0 2.0 180542 361181
d 2.209977 1 2 tcp 1500 ------- 0 0.0 2.0 182960 366018
d 2.238993 1 2 tcp 1500 ------- 0 0.0 2.0 185378 370855
d 2.268009 1 2 tcp 1500 ------- 0 0.0 2.0 187796 375692
d 2.297025 1 2 tcp 1500 ------- 0 0.0 2.0 190214 380529
d 2.326041 1 2 tcp 1500 ------- 0 0.0 2.0 192632 385366
d 2.355057 1 2 tcp 1500 ------- 0 0.0 2.0 195050 390203
d 2.384073 1 2 tcp 1500 ------- 0 0.0 2.0 197468 395040
d 2.413089 1 2 tcp 1500 ------- 0 0.0 2.0 199886 399877
d 2.442105 1 2 tcp 1500 ------- 0 0.0 2.0 202304 404714
d 2.471121 1 2 tcp 1500 ------- 0 0.0 2.0 204722 409551
d 2.500137 1 2 tcp 1500 ------- 0 0.0 2.0 207140 414388
d 2.529153 1 2 tcp 1500 ------- 0 0.0 2.0 209558 419225
d 2.558169 1 2 tcp 1500 ------- 0 0.0 2.0 211976 424062
d 2.587185 1 2 tcp 1500 ------- 0 0.0 2.0 214394 428899
d 2.616201 1 2 tcp 1500 ------- 0 0.0 2.0 216812 433736
d 2.645217 1 2 tcp 1500 ------- 0 0.0 2.0 219230 438573
d 2.674233 1 2 tcp 1500 ------- 0 0.0 2.0 221648 443410
d 2.703249 1 2 tcp 1500 ------- 0 0.0 2.0 224066 448247
d 2.732265 1 2 tcp 1500 ------- 0 0.0 2.0 226484 453084
d 2.761281 1 2 tcp 1500 ------- 0 0.0 2.0 228902 457921
d 2.790297 1 2 tcp 1500 ------- 0 0.0 2.0 231320 462758
d 2.819313 1 2 tcp 1500 ------- 0 0.0 2.0 233738 467595
d 2.848329 1 2 tcp 1500 ------- 0 0.0 2.0 236156 472432
d 2.877345 1 2 tcp 1500 ------- 0 0.0 2.0 238574 477269
d 2.906361 1 2 tcp 1500 ------- 0 0.0 2.0 240992 482106
d 2.935377 1 2 tcp 1500 ------- 0 0.0 2.0 243410 486943
d 2.964393 1 2 tcp 1500 ------- 0 0.0 2.0 245828 491780
d 2.993409 1 2 tcp 1500 ------- 0 0.0 2.0 248246 496617
d 3.022425 1 2 tcp 1500 ------- 0 0.0 2.0 250664 501454
d 3.051441 1 2 tcp 1500 ------- 0 0.0 2.0 253082 506291
d 3.080457 1 2 tcp 1500 ------- 0 0.0 2.0 255500 511128
d 3.109473 1 2 tcp 1500 ------- 0 0.0 2.0 257918 515965
d 3.138489 1 2 tcp 1500 ------- 0 0.0 2.0 260336 520802
d 3.167505 1 2 tcp 1500 ------- 0 0.0 2.0 262754 525639
d 3.196521 1 2 tcp 1500 ------- 0 0.0 2.0 265172 530476
d 3.225537 1 2 tcp 1500 ------- 0 0.0 2.0 267590 535313
d 3.254553 1 2 tcp 1500 ------- 0 0.0 2.0 270008 540150
d 3.283569 1 2 tcp 1500 ------- 0 0.0 2.0 272426 544987
d 3.312585 1 2 tcp 1500 ------- 0 0.0 2.0 274844 549824
d 3.341601 1 2 tcp 1500 ------- 0 0.0 2.0 277262 554661
d 3.370617 1 2 tcp 1500 ------- 0 0.0 2.0 279680 559498
d 3.399633 1 2 tcp 1500 ------- 0 0.0 2.0 282098 564335
d 3.428649 1 2 tcp 1500 ------- 0 0.0 2.0 284516 569172
d 3.457665 1 2 tcp 1500 ------- 0 0.0 2.0 286934 574009
d 3.486681 1 2 tcp 1500 ------- 0 0.0 2.0 289352 578846
d 3.515697 1 2 tcp 1500 ------- 0 0.0 2.0 291770 583683
d 3.544713 1 2 tcp 1500 ------- 0 0.0 2.0 294188 588520
d 3.573729 1 2 tcp 1500 ------- 0 0.0 2.0 296606 593357
d 3.602745 1 2 tcp 1500 ------- 0 0.0 2.0 299024 598194
d 3.631761 1 2 tcp 1500 ------- 0 0.0 2.0 301442 603031
d 3.660777 1 2 tcp 1500 ------- 0 0.0 2.0 303860 607868
d 3.689793 1 2 tcp 1500 ------- 0 0.0 2.0 306278 612705
d 3.718809 1 2 tcp 1500 ------- 0 0.0 2.0 308696 617542
d 3.747825 1 2 tcp 1500 ------- 0 0.0 2.0 311114 622379
d 3.776841 1 2 tcp 1500 ------- 0 0.0 2.0 313532 627216
d 3.805857 1 2 tcp 1500 ------- 0 0.0 2.0 315950 632053
d 3.834873 1 2 tcp 1500 ------- 0 0.0 2.0 318368 636890
d 3.863889 1 2 tcp 1500 ------- 0 0.0 2.0 320786 641727
d 3.892905 1 2 tcp 1500 ------- 0 0.0 2.0 323204 646564
d 3.921921 1 2 tcp 1500 ------- 0 0.0 2.0 325622 651401
d 3.950937 1 2 tcp 1500 ------- 0 0.0 2.0 328040 656238
d 3.979953 1 2 tcp 1500 ------- 0 0.0 2.0 330458 661075
d 4.008969 1 2 tcp 1500 ------- 0 0.0 2.0 332876 665912
d 4.037985 1 2 tcp 1500 ------- 0 0.0 2.0 335294 670749
d 4.067001 1 2 tcp 1500 ------- 0 0.0 2.0 337712 675586
d 4.096017 1 2 tcp 1500 ------- 0 0.0 2.0 340130 680423
d 4.125033 1 2 tcp 1500 ------- 0 0.0 2.0 342548 685260
d 4.154049 1 2 tcp 1500 ------- 0 0.0 2.0 344966 690097
d 4.183065 1 2 tcp 1500 ------- 0 0.0 2.0 347384 694934
d 4.212081 1 2 tcp 1500 ------- 0 0.0 2.0 349802 699771
d 4.241097 1 2 tcp 1500 ------- 0 0.0 2.0 352220 704608
d 4.270113 1 2 tcp 1500 ------- 0 0.0 2.0 354638 709445
d 4.299129 1 2 tcp 1500 ------- 0 0.0 2.0 357056 714282
d 4.328145 1 2 tcp 1500 ------- 0 0.0 2.0 359474 719119
d 4.357161 1 2 tcp 1500 ------- 0 0.0 2.0 361892 723956
d 4.386177 1 2 tcp 1500 ------- 0 0.0 2.0 364310 728793
d 4.415193 1 2 tcp 1500 ------- 0 0.0 2.0 366728 733630
d 4.444209 1 2 tcp 1500 ------- 0 0.0 2.0 369146 738467
d 4.473225 1 2 tcp 1500 ------- 0 0.0 2.0 371564 743304
d 4.502241 1 2 tcp 1500 ------- 0 0.0 2.0 373982 748141
d 4.531257 1 2 tcp 1500 ------- 0 0.0 2.0 376400 752978
d 4.560273 1 2 tcp 1500 ------- 0 0.0 2.0 378818 757815
d 4.589289 1 2 tcp 1500 ------- 0 0.0 2.0 381236 762652
d 4.618305 1 2 tcp 1500 ------- 0 0.0 2.0 383654 767489
d 4.647321 1 2 tcp 1500 ------- 0 0.0 2.0 386072 772326
d 4.676337 1 2 tcp 1500 ------- 0 0.0 2.0 388490 777163
d 4.705353 1 2 tcp 1500 ------- 0 0.0 2.0 390908 782000
d 4.734369 1 2 tcp 1500 ------- 0 0.0 2.0 393326 786837
d 4.763385 1 2 tcp 1500 ------- 0 0.0 2.0 395744 791674
d 4.792401 1 2 tcp 1500 ------- 0 0.0 2.0 398162 796511
d 4.821417 1 2 tcp 1500 ------- 0 0.0 2.0 400580 801348
d 4.850433 1 2 tcp 1500 ------- 0 0.0 2.0 402998 806185
d 4.879449 1 2 tcp 1500 ------- 0 0.0 2.0 405416 811022
d 4.908465 1 2 tcp 1500 ------- 0 0.0 2.0 407834 815859
d 4.937481 1 2 tcp 1500 ------- 0 0.0 2.0 410252 820696
d 4.966497 1 2 tcp 1500 ------- 0 0.0 2.0 412670 825533
d 4.995513 1 2 tcp 1500 ------- 0 0.0 2.0 415088 830370
d 5.024529 1 2 tcp 1500 ------- 0 0.0 2.0 417506 835207
d 5.053545 1 2 tcp 1500 ------- 0 0.0 2.0 419924 840044
d 5.082561 1 2 tcp 1500 ------- 0 0.0 2.0 422342 844881
d 5.111577 1 2 tcp 1500 ------- 0 0.0 2.0 424760 849718
d 5.140593 1 2 tcp 1500 ------- 0 0.0 2.0 427178 854555
d 5.169609 1 2 tcp 1500 ------- 0 0.0 2.0 429596 859392
d 5.198625 1 2 tcp 1500 ------- 0 0.0 2.0 432014 864229
d 5.227641 1 2 tcp 1500 ------- 0 0.0 2.0 434432 869066
d 5.256657 1 2 tcp 1500 ------- 0 0.0 2.0 436850 873903
d 5.285673 1 2 tcp 1500 ------- 0 0.0 2.0 439268 878740
d 5.314689 1 2 tcp 1500 ------- 0 0.0 2.0 441686 883577
d 5.343705 1 2 tcp 1500 ------- 0 0.0 2.0 444104 888414
d 5.372721 1 2 tcp 1500 ------- 0 0.0 2.0 446522 893251
d 5.401737 1 2 tcp 1500 ------- 0 0.0 2.0 448940 898088
d 5.430753 1 2 tcp 1500 ------- 0 0.0 2.0 451358 902925
d 5.459769 1 2 tcp 1500 ------- 0 0.0 2.0 453776 907762
d 5.488785 1 2 tcp 1500 ------- 0 0.0 2.0 456194 912599
d 5.517801 1 2 tcp 1500 ------- 0 0.0 2.0 458612 917436
d 5.546817 1 2 tcp 1500 ------- 0 0.0 2.0 461030 922273
d 5.575833 1 2 tcp 1500 ------- 0 0.0 2.0 463448 927110
d 5.604849 1 2 tcp 1500 ------- 0 0.0 2.0 465866 931947
d 5.633865 1 2 tcp 1500 ------- 0 0.0 2.0 468284 936784
d 5.662881 1 2 tcp 1500 ------- 0 0.0 2.0 470702 941621
d 5.691897 1 2 tcp 1500 ------- 0 0.0 2.0 473120 946458
d 5.720913 1 2 tcp 1500 ------- 0 0.0 2.0 475538 951295
d 5.749929 1 2 tcp 1500 ------- 0 0.0 2.0 477956 956132
d 5.778945 1 2 tcp 1500 ------- 0 0.0 2.0 480374 960969
d 5.807961 1 2 tcp 1500 ------- 0 0.0 2.0 482792 965806
d 5.836977 1 2 tcp 1500 ------- 0 0.0 2.0 485210 970643
d 5.865993 1 2 tcp 1500 ------- 0 0.0 2.0 487628 975480
d 5.895009 1 2 tcp 1500 ------- 0 0.0 2.0 490046 980317
d 5.924025 1 2 tcp 1500 ------- 0 0.0 2.0 492464 985154
d 5.953041 1 2 tcp 1500 ------- 0 0.0 2.0 494882 989991
d 5.982057 1 2 tcp 1500 ------- 0 0.0 2.0 497300 994828
d 6.011073 1 2 tcp 1500 ------- 0 0.0 2.0 499718 999665
d 6.040089 1 2 tcp 1500 ------- 0 0.0 2.0 502136 1004502
d 6.069105 1 2 tcp 1500 ------- 0 0.0 2.0 504554 1009339
d 6.098121 1 2 tcp 1500 ------- 0 0.0 2.0 506972 1014176
d 6.127137 1 2 tcp 1500 ------- 0 0.0 2.0 509390 1019013
d 6.156153 1 2 tcp 1500 ------- 0 0.0 2.0 511808 1023850
d 6.185169 1 2 tcp 1500 ------- 0 0.0 2.0 514226 1028687
d 6.214185 1 2 tcp 1500 ------- 0 0.0 2.0 516644 1033524
d 6.243201 1 2 tcp 1500 ------- 0 0.0 2.0 519062 1038361
d 6.272217 1 2 tcp 1500 ------- 0 0.0 2.0 521480 1043198
d 6.301233 1 2 tcp 1500 ------- 0 0.0 2.0 523898 1048035
d 6.330249 1 2 tcp 1500 ------- 0 0.0 2.0 526316 1052872
d 6.359265 1 2 tcp 1500 ------- 0 0.0 2.0 528734 1057709
d 6.388281 1 2 tcp 1500 ------- 0 0.0 2.0 531152 1062546
d 6.417297 1 2 tcp 1500 ------- 0 0.0 2.0 533570 1067383
d 6.446313 1 2 tcp 1500 ------- 0 0.0 2.0 535988 1072220
d 6.475329 1 2 tcp 1500 ------- 0 0.0 2.0 538406 1077057
d 6.504345 1 2 tcp 1500 ------- 0 0.0 2.0 540824 1081894
d 6.533361 1 2 tcp 1500 ------- 0 0.0 2.0 543242 1086731
d 6.562377 1 2 tcp 1500 ------- 0 0.0 2.0 545660 1091568
d 6.591393 1 2 tcp 1500 ------- 0 0.0 2.0 548078 1096405
d 6.620409 1 2 tcp 1500 ------- 0 0.0 2.0 550496 1101242
d 6.649425 1 2 tcp 1500 ------- 0 0.0 2.0 552914 1106079
d 6.678441 1 2 tcp 1500 ------- 0 0.0 2.0 555332 1110916
d 6.707457 1 2 tcp 1500 ------- 0 0.0 2.0 557750 1115753
d 6.736473 1 2 tcp 1500 ------- 0 0.0 2.0 560168 1120590
d 6.765489 1 2 tcp 1500 ------- 0 0.0 2.0 562586 1125427
d 6.794505 1 2 tcp 1500 ------- 0 0.0 2.0 565004 1130264
d 6.823521 1 2 tcp 1500 ------- 0 0.0 2.0 567422 1135101
d 6.852537 1 2 tcp 1500 ------- 0 0.0 2.0 569840 1139938
d 6.881553 1 2 tcp 1500 ------- 0 0.0 2.0 572258 1144775
d 6.910569 1 2 tcp 1500 ------- 0 0.0 2.0 574676 1149612
d 6.939585 1 2 tcp 1500 ------- 0 0.0 2.0 577094 1154449
d 6.968601 1 2 tcp 1500 ------- 0 0.0 2.0 579512 1159286
d 6.997617 1 2 tcp 1500 ------- 0 0.0 2.0 581930 1164123
d 7.026633 1 2 tcp 1500 ------- 0 0.0 2.0 584348 1168960
d 7.055649 1 2 tcp 1500 ------- 0 0.0 2.0 586766 1173797
d 7.084665 1 2 tcp 1500 ------- 0 0.0 2.0 589184 1178634
d 7.113681 1 2 tcp 1500 ------- 0 0.0 2.0 591602 1183471
d 7.142697 1 2 tcp 1500 ------- 0 0.0 2.0 594020 1188308
d 7.171713 1 2 tcp 1500 ------- 0 0.0 2.0 596438 1193145
d 7.200729 1 2 tcp 1500 ------- 0 0.0 2.0 598856 1197982
d 7.229745 1 2 tcp 1500 ------- 0 0.0 2.0 601274 1202819
d 7.258761 1 2 tcp 1500 ------- 0 0.0 2.0 603692 1207656
d 7.287777 1 2 tcp 1500 ------- 0 0.0 2.0 606110 1212493
d 7.316793 1 2 tcp 1500 ------- 0 0.0 2.0 608528 1217330
d 7.345809 1 2 tcp 1500 ------- 0 0.0 2.0 610946 1222167
d 7.374825 1 2 tcp 1500 ------- 0 0.0 2.0 613364 1227004
d 7.403841 1 2 tcp 1500 ------- 0 0.0 2.0 615782 1231841
d 7.432857 1 2 tcp 1500 ------- 0 0.0 2.0 618200 1236678
d 7.461873 1 2 tcp 1500 ------- 0 0.0 2.0 620618 1241515
d 7.490889 1 2 tcp 1500 ------- 0 0.0 2.0 623036 1246352
d 7.519905 1 2 tcp 1500 ------- 0 0.0 2.0 625454 1251189
d 7.548921 1 2 tcp 1500 ------- 0 0.0 2.0 627872 1256026
d 7.577937 1 2 tcp 1500 ------- 0 0.0 2.0 630290 1260863
d 7.606953 1 2 tcp 1500 ------- 0 0.0 2.0 632708 1265700
d 7.635969 1 2 tcp 1500 ------- 0 0.0 2.0 635126 1270537
d 7.664985 1 2 tcp 1500 ------- 0 0.0 2.0 637544 1275374
d 7.694001 1 2 tcp 1500 ------- 0 0.0 2.0 639962 1280211
d 7.723017 1 2 tcp 1500 ------- 0 0.0 2.0 642380 1285048
d 7.752033 1 2 tcp 1500 ------- 0 0.0 2.0 644798 1289885
d 7.781049 1 2 tcp 1500 ------- 0 0.0 2.0 647216 1294722
d 7.810065 1 2 tcp 1500 ------- 0 0.0 2.0 649634 1299559
d 7.839081 1 2 tcp 1500 ------- 0 0.0 2.0 652052 1304396
d 7.868097 1 2 tcp 1500 ------- 0 0.0 2.0 654470 1309233
d 7.897113 1 2 tcp 1500 ------- 0 0.0 2.0 656888 1314070
d 7.926129 1 2 tcp 1500 ------- 0 0.0 2.0 659306 1318907
d 7.955145 1 2 tcp 1500 ------- 0 0.0 2.0 661724 1323744
d 7.984161 1 2 tcp 1500 ------- 0 0.0 2.0 664142 1328581
d 8.013177 1 2 tcp 1500 ------- 0 0.0 2.0 666560 1333418
d 8.042193 1 2 tcp 1500 ------- 0 0.0 2.0 668978 1338255
d 8.071209 1 2 tcp 1500 ------- 0 0.0 2.0 671396 1343092
d 8.100225 1 2 tcp 1500 ------- 0 0.0 2.0 673814 1347929
d 8.129241 1 2 tcp 1500 ------- 0 0.0 2.0 676232 1352766
d 8.158257 1 2 tcp 1500 ------- 0 0.0 2.0 678650 1357603
d 8.187273 1 2 tcp 1500 ------- 0 0.0 2.0 681068 1362440
d 8.216289 1 2 tcp 1500 ------- 0 0.0 2.0 683486 1367277
d 8.245305 1 2 tcp 1500 ------- 0 0.0 2.0 685904 1372114
d 8.274321 1 2 tcp 1500 ------- 0 0.0 2.0 688322 1376951
d 8.303337 1 2 tcp 1500 ------- 0 0.0 2.0 690740 1381788
d 8.332353 1 2 tcp 1500 ------- 0 0.0 2.0 693158 1386625
d 8.361369 1 2 tcp 1500 ------- 0 0.0 2.0 695576 1391462
d 8.390385 1 2 tcp 1500 ------- 0 0.0 2.0 697994 1396299
d 8.419401 1 2 tcp 1500 ------- 0 0.0 2.0 700412 1401136
d 8.448417 1 2 tcp 1500 ------- 0 0.0 2.0 702830 1405973
d 8.477433 1 2 tcp 1500 ------- 0 0.0 2.0 705248 1410810
d 8.506449 1 2 tcp 1500 ------- 0 0.0 2.0 707666 1415647
d 8.535465 1 2 tcp 1500 ------- 0 0.0 2.0 710084 1420484
d 8.564481 1 2 tcp 1500 ------- 0 0.0 2.0 712502 1425321
d 8.593497 1 2 tcp 1500 ------- 0 0.0 2.0 714920 1430158
d 8.622513 1 2 tcp 1500 ------- 0 0.0 2.0 717338 1434995
d 8.651529 1 2 tcp 1500 ------- 0 0.0 2.0 719756 1439832
d 8.680545 1 2 tcp 1500 ------- 0 0.0 2.0 722174 1444669
d 8.709561 1 2 tcp 1500 ------- 0 0.0 2.0 724592 1449506
d 8.738577 1 2 tcp 1500 ------- 0 0.0 2.0 727010 1454343
d 8.767593 1 2 tcp 1500 ------- 0 0.0 2.0 729428 1459180
d 8.796609 1 2 tcp 1500 ------- 0 0.0 2.0 731846 1464017
d 8.825625 1 2 tcp 1500 ------- 0 0.0 2.0 734264 1468854
d 8.854641 1 2 tcp 1500 ------- 0 0.0 2.0 736682 1473691
d 8.883657 1 2 tcp 1500 ------- 0 0.0 2.0 739100 1478528
d 8.912673 1 2 tcp 1500 ------- 0 0.0 2.0 741518 1483365
d 8.941689 1 2 tcp 1500 ------- 0 0.0 2.0 743936 1488202
d 8.970705 1 2 tcp 1500 ------- 0 0.0 2.0 746354 1493039
d 8.999721 1 2 tcp 1500 ------- 0 0.0 2.0 748772 1497876
d 9.028737 1 2 tcp 1500 ------- 0 0.0 2.0 751190 1502713
d 9.057753 1 2 tcp 1500 ------- 0 0.0 2.0 753608 1507550
d 9.086769 1 2 tcp 1500 ------- 0 0.0 2.0 756026 1512387
d 9.115785 1 2 tcp 1500 ------- 0 0.0 2.0 758444 1517224
d 9.144801 1 2 tcp 1500 ------- 0 0.0 2.0 760862 1522061
d 9.173817 1 2 tcp 1500 ------- 0 0.0 2.0 763280 1526898
d 9.202833 1 2 tcp 1500 ------- 0 0.0 2.0 765698 1531735
d 9.231849 1 2 tcp 1500 ------- 0 0.0 2.0 768116 1536572
d 9.260865 1 2 tcp 1500 ------- 0 0.0 2.0 770534 1541409
d 9.289881 1 2 tcp 1500 ------- 0 0.0 2.0 772952 1546246
d 9.318897 1 2 tcp 1500 ------- 0 0.0 2.0 775370 1551083
d 9.347913 1 2 tcp 1500 ------- 0 0.0 2.0 777788 1555920
d 9.376929 1 2 tcp 1500 ------- 0 0.0 2.0 780206 1560757
d 9.405945 1 2 tcp 1500 ------- 0 0.0 2.0 782624 1565594
d 9.434961 1 2 tcp 1500 ------- 0 0.0 2.0 785042 1570431
d 9.463977 1 2 tcp 1500 ------- 0 0.0 2.0 787460 1575268
d 9.492993 1 2 tcp 1500 ------- 0 0.0 2.0 789878 1580105
d 9.522009 1 2 tcp 1500 ------- 0 0.0 2.0 792296 1584942
d 9.551025 1 2 tcp 1500 ------- 0 0.0 2.0 794714 1589779
d 9.580041 1 2 tcp 1500 ------- 0 0.0 2.0 797132 1594616
d 9.609057 1 2 tcp 1500 ------- 0 0.0 2.0 799550 1599453
d 9.638073 1 2 tcp 1500 ------- 0 0.0 2.0 801968 1604290
d 9.667089 1 2 tcp 1500 ------- 0 0.0 2.0 804386 1609127
d 9.696105 1 2 tcp 1500 ------- 0 0.0 2.0 806804 1613964
d 9.725121 1 2 tcp 1500 ------- 0 0.0 2.0 809222 1618801
d 9.754137 1 2 tcp 1500 ------- 0 0.0 2.0 811640 1623638
d 9.783153 1 2 tcp 1500 ------- 0 0.0 2.0 814058 1628475
d 9.812169 1 2 tcp 1500 ------- 0 0.0 2.0 816476 1633312
d 9.841185 1 2 tcp 1500 ------- 0 0.0 2.0 818894 1638149
d 9.870201 1 2 tcp 1500 ------- 0 0.0 2.0 821312 1642986
d 9.899217 1 2 tcp 1500 ------- 0 0.0 2.0 823730 1647823
d 9.928233 1 2 tcp 1500 ------- 0 0.0 2.0 826148 1652660
d 9.957249 1 2 tcp 1500 ------- 0 0.0 2.0 828566 1657497
d 9.986265 1 2 tcp 1500 ------- 0 0.0 2.0 830984 1662334
d 10.015281 1 2 tcp 1500 ------- 0 0.0 2.0 833402 1667171
d 10.044297 1 2 tcp 1500 ------- 0 0.0 2.0 835820 1672008
d 10.073313 1 2 tcp 1500 ------- 0 0.0 2.0 838238 1676845
d 10.102329 1 2 tcp 1500 ------- 0 0.0 2.0 840656 1681682
d 10.131345 1 2 tcp 1500 ------- 0 0.0 2.0 843074 1686519
d 10.160361 1 2 tcp 1500 ------- 0 0.0 2.0 845492 1691356
d 10.189377 1 2 tcp 1500 ------- 0 0.0 2.0 847910 1696193
d 10.218393 1 2 tcp 1500 ------- 0 0.0 2.0 850328 1701030
d 10.247409 1 2 tcp 1500 ------- 0 0.0 2.0 852746 1705867
d 10.276425 1 2 tcp 1500 ------- 0 0.0 2.0 855164 1710704
d 10.305441 1 2 tcp 1500 ------- 0 0.0 2.0 857582 1715541
d 10.334457 1 2 tcp 1500 ------- 0 0.0 2.0 860000 1720378
d 10.363473 1 2 tcp 1500 ------- 0 0.0 2.0 862418 1725215
d 10.392489 1 2 tcp 1500 ------- 0 0.0 2.0 864836 1730052
d 10.421505 1 2 tcp 1500 ------- 0 0.0 2.0 867254 1734889
d 10.450521 1 2 tcp 1500 ------- 0 0.0 2.0 869672 1739726
d 10.479537 1 2 tcp 1500 ------- 0 0.0 2.0 872090 1744563
d 10.508553 1 2 tcp 1500 ------- 0 0.0 2.0 874508 1749400
d 10.537569 1 2 tcp 1500 ------- 0 0.0 2.0 876926 1754237
d 10.566585 1 2 tcp 1500 ------- 0 0.0 2.0 879344 1759074
d 10.595601 1 2 tcp 1500 ------- 0 0.0 2.0 881762 1763911
d 10.624617 1 2 tcp 1500 ------- 0 0.0 2.0 884180 1768748
d 10.653633 1 2 tcp 1500 ------- 0 0.0 2.0 886598 1773585
d 10.682649 1 2 tcp 1500 ------- 0 0.0 2.0 889016 1778422
d 10.711665 1 2 tcp 1500 ------- 0 0.0 2.0 891434 1783259
d 10.740681 1 2 tcp 1500 ------- 0 0.0 2.0 893852 1788096
d 10.769697 1 2 tcp 1500 ------- 0 0.0 2.0 896270 1792933
d 10.798713 1 2 tcp 1500 ------- 0 0.0 2.0 898688 1797770
d 10.827729 1 2 tcp 1500 ------- 0 0.0 2.0 901106 1802607
d 10.856745 1 2 tcp 1500 ------- 0 0.0 2.0 903524 1807444
d 10.885761 1 2 tcp 1500 ------- 0 0.0 2.0 905942 1812281
d 10.914777 1 2 tcp 1500 ------- 0 0.0 2.0 908360 1817118
d 10.943793 1 2 tcp 1500 ------- 0 0.0 2.0 910778 1821955
d 10.972809 1 2 tcp 1500 ------- 0 0.0 2.0 913196 1826792
d 11.001825 1 2 tcp 1500 ------- 0 0.0 2.0 915614 1831629
d 11.030841 1 2 tcp 1500 ------- 0 0.0 2.0 918032 1836466
d 11.059857 1 2 tcp 1500 ------- 0 0.0 2.0 920450 1841303
d 11.088873 1 2 tcp 1500 ------- 0 0.0 2.0 922868 1846140
d 11.117889 1 2 tcp 1500 ------- 0 0.0 2.0 925286 1850977
d 11.146905 1 2 tcp 1500 ------- 0 0.0 2.0 927704 1855814
d 11.175921 1 2 tcp 1500 ------- 0 0.0 2.0 930122 1860651
d 11.204937 1 2 tcp 1500 ------- 0 0.0 2.0 932540 1865488
d 11.233953 1 2 tcp 1500 ------- 0 0.0 2.0 934958 1870325
d 11.262969 1 2 tcp 1500 ------- 0 0.0 2.0 937376 1875162
d 11.291985 1 2 tcp 1500 ------- 0 0.0 2.0 939794 1879999
d 11.321001 1 2 tcp 1500 ------- 0 0.0 2.0 942212 1884836
d 11.350017 1 2 tcp 1500 ------- 0 0.0 2.0 944630 1889673
d 11.379033 1 2 tcp 1500 ------- 0 0.0 2.0 947048 1894510
d 11.408049 1 2 tcp 1500 ------- 0 0.0 2.0 949466 1899347
d 11.437065 1 2 tcp 1500 ------- 0 0.0 2.0 951884 1904184
d 11.466081 1 2 tcp 1500 ------- 0 0.0 2.0 954302 1909021
d 11.495097 1 2 tcp 1500 ------- 0 0.0 2.0 956720 1913858
d 11.524113 1 2 tcp 1500 ------- 0 0.0 2.0 959138 1918695
d 11.553129 1 2 tcp 1500 ------- 0 0.0 2.0 961556 1923532
d 11.582145 1 2 tcp 1500 ------- 0 0.0 2.0 963974 1928369
d 11.611161 1 2 tcp 1500 ------- 0 0.0 2.0 966392 1933206
d 11.640177 1 2 tcp 1500 ------- 0 0.0 2.0 968810 1938043
d 11.669193 1 2 tcp 1500 ------- 0 0.0 2.0 971228 1942880
d 11.698209 1 2 tcp 1500 ------- 0 0.0 2.0 973646 1947717
d 11.727225 1 2 tcp 1500 ------- 0 0.0 2.0 976064 1952554
d 11.756241 1 2 tcp 1500 ------- 0 0.0 2.0 978482 1957391
d 11.785257 1 2 tcp 1500 ------- 0 0.0 2.0 980900 1962228
d 11.814273 1 2 tcp 1500 ------- 0 0.0 2.0 983318 1967065
d 11.843289 1 2 tcp 1500 ------- 0 0.0 2.0 985736 1971902
d 11.872305 1 2 tcp 1500 ------- 0 0.0 2.0 988154 1976739
d 11.901321 1 2 tcp 1500 ------- 0 0.0 2.0 990572 1981576
d 11.930337 1 2 tcp 1500 ------- 0 0.0 2.0 992990 1986413
d 11.959353 1 2 tcp 1500 ------- 0 0.0 2.0 995408 1991250
d 11.988369 1 2 tcp 1500 ------- 0 0.0 2.0 997826 1996087
d 12.017385 1 2 tcp 1500 ------- 0 0.0 2.0 1000244 2000924
d 12.046401 1 2 tcp 1500 ------- 0 0.0 2.0 1002662 2005761
d 12.075417 1 2 tcp 1500 ------- 0 0.0 2.0 1005080 2010598
d 12.104433 1 2 tcp 1500 ------- 0 0.0 2.0 1007498 2015435
d 12.133449 1 2 tcp 1500 ------- 0 0.0 2.0 1009916 2020272
d 12.162465 1 2 tcp 1500 ------- 0 0.0 2.0 1012334 2025109
d 12.191481 1 2 tcp 1500 ------- 0 0.0 2.0 1014752 2029946
d 12.220497 1 2 tcp 1500 ------- 0 0.0 2.0 1017170 2034783
d 12.249513 1 2 tcp 1500 ------- 0 0.0 2.0 1019588 2039620
d 12.278529 1 2 tcp 1500 ------- 0 0.0 2.0 1022006 2044457
d 12.307545 1 2 tcp 1500 ------- 0 0.0 2.0 1024424 2049294
d 12.336561 1 2 tcp 1500 ------- 0 0.0 2.0 1026842 2054131
d 12.365577 1 2 tcp 1500 ------- 0 0.0 2.0 1029260 2058968
d 12.394593 1 2 tcp 1500 ------- 0 0.0 2.0 1031678 2063805
d 12.423609 1 2 tcp 1500 ------- 0 0.0 2.0 1034096 2068642
d 12.452625 1 2 tcp 1500 ------- 0 0.0 2.0 1036514 2073479
d 12.481641 1 2 tcp 1500 ------- 0 0.0 2.0 1038932 2078316
d 12.510657 1 2 tcp 1500 ------- 0 0.0 2.0 1041350 2083153
d 12.539673 1 2 tcp 1500 ------- 0 0.0 2.0 1043768 2087990
d 12.568689 1 2 tcp 1500 ------- 0 0.0 2.0 1046186 2092827
d 12.597705 1 2 tcp 1500 ------- 0 0.0 2.0 1048604 2097664
d 12.626721 1 2 tcp 1500 ------- 0 0.0 2.0 1051022 2102501
d 12.655737 1 2 tcp 1500 ------- 0 0.0 2.0 1053440 2107338
d 12.684753 1 2 tcp 1500 ------- 0 0.0 2.0 1055858 2112175
d 12.713769 1 2 tcp 1500 ------- 0 0.0 2.0 1058276 2117012
d 12.742785 1 2 tcp 1500 ------- 0 0.0 2.0 1060694 2121849
d 12.771801 1 2 tcp 1500 ------- 0 0.0 2.0 1063112 2126686
d 12.800817 1 2 tcp 1500 ------- 0 0.0 2.0 1065530 2131523
d 12.829833 1 2 tcp 1500 ------- 0 0.0 2.0 1067948 2136360
d 12.858849 1 2 tcp 1500 ------- 0 0.0 2.0 1070366 2141197
d 12.887865 1 2 tcp 1500 ------- 0 0.0 2.0 1072784 2146034