+ 0 0 101 tcp 40 C------ 0 0.0 102.0 0 0
- 0 0 101 tcp 40 C------ 0 0.0 102.0 0 0
+ 0 0 101 tcp 1500 ------N 0 0.0 102.0 1 1
- 5e-06 0 101 tcp 1500 ------N 0 0.0 102.0 1 1
+ 0.02 1 101 tcp 40 C------ 1 1.0 102.1 0 2
- 0.02 1 101 tcp 40 C------ 1 1.0 102.1 0 2
+ 0.02 1 101 tcp 1500 ------N 1 1.0 102.1 1 3
- 0.020005 1 101 tcp 1500 ------N 1 1.0 102.1 1 3
r 0.025005 0 101 tcp 40 C------ 0 0.0 102.0 0 0
+ 0.025005 101 102 tcp 40 C------ 0 0.0 102.0 0 0
- 0.025005 101 102 tcp 40 C------ 0 0.0 102.0 0 0
r 0.025174 0 101 tcp 1500 ------N 0 0.0 102.0 1 1
+ 0.025174 101 102 tcp 1500 ------N 0 0.0 102.0 1 1
- 0.025174 101 102 tcp 1500 ------N 0 0.0 102.0 1 1
+ 0.03 2 101 tcp 40 C------ 2 2.0 102.2 0 4
- 0.03 2 101 tcp 40 C------ 2 2.0 102.2 0 4
+ 0.03 2 101 tcp 1500 ------N 2 2.0 102.2 1 5
- 0.030005 2 101 tcp 1500 ------N 2 2.0 102.2 1 5
r 0.045005 1 101 tcp 40 C------ 1 1.0 102.1 0 2
+ 0.045005 101 102 tcp 40 C------ 1 1.0 102.1 0 2
- 0.045005 101 102 tcp 40 C------ 1 1.0 102.1 0 2
r 0.045174 1 101 tcp 1500 ------N 1 1.0 102.1 1 3
+ 0.045174 101 102 tcp 1500 ------N 1 1.0 102.1 1 3
- 0.045174 101 102 tcp 1500 ------N 1 1.0 102.1 1 3
r 0.050029 101 102 tcp 40 C------ 0 0.0 102.0 0 0
+ 0.050029 102 101 ack 40 C------ 0 102.0 0.0 0 6
- 0.050029 102 101 ack 40 C------ 0 102.0 0.0 0 6
r 0.051083 101 102 tcp 1500 ------N 0 0.0 102.0 1 1
+ 0.051083 102 101 ack 40 ------- 0 102.0 0.0 1 7
- 0.051083 102 101 ack 40 ------- 0 102.0 0.0 1 7
r 0.055005 2 101 tcp 40 C------ 2 2.0 102.2 0 4
+ 0.055005 101 102 tcp 40 C------ 2 2.0 102.2 0 4
- 0.055005 101 102 tcp 40 C------ 2 2.0 102.2 0 4
r 0.055174 2 101 tcp 1500 ------N 2 2.0 102.2 1 5
+ 0.055174 101 102 tcp 1500 ------N 2 2.0 102.2 1 5
- 0.055174 101 102 tcp 1500 ------N 2 2.0 102.2 1 5
r 0.070025 101 102 tcp 40 C------ 1 1.0 102.1 0 2
+ 0.070025 102 101 ack 40 C------ 1 102.1 1.0 0 8
- 0.070025 102 101 ack 40 C------ 1 102.1 1.0 0 8
r 0.070943 101 102 tcp 1500 ------N 1 1.0 102.1 1 3
+ 0.070943 102 101 ack 40 ------- 1 102.1 1.0 1 9
- 0.070943 102 101 ack 40 ------- 1 102.1 1.0 1 9
r 0.075033 102 101 ack 40 C------ 0 102.0 0.0 0 6
+ 0.075033 101 0 ack 40 C------ 0 102.0 0.0 0 6
- 0.075033 101 0 ack 40 C------ 0 102.0 0.0 0 6
r 0.076087 102 101 ack 40 ------- 0 102.0 0.0 1 7
+ 0.076087 101 0 ack 40 ------- 0 102.0 0.0 1 7
- 0.076087 101 0 ack 40 ------- 0 102.0 0.0 1 7
r 0.080014 101 102 tcp 40 C------ 2 2.0 102.2 0 4
+ 0.080014 102 101 ack 40 C------ 2 102.2 2.0 0 10
- 0.080014 102 101 ack 40 C------ 2 102.2 2.0 0 10
r 0.080518 101 102 tcp 1500 ------N 2 2.0 102.2 1 5
+ 0.080518 102 101 ack 40 ------- 2 102.2 2.0 1 11
- 0.080518 102 101 ack 40 ------- 2 102.2 2.0 1 11
r 0.09503 102 101 ack 40 C------ 1 102.1 1.0 0 8
+ 0.09503 101 1 ack 40 C------ 1 102.1 1.0 0 8
- 0.09503 101 1 ack 40 C------ 1 102.1 1.0 0 8
r 0.095947 102 101 ack 40 ------- 1 102.1 1.0 1 9
+ 0.095947 101 1 ack 40 ------- 1 102.1 1.0 1 9
- 0.095947 101 1 ack 40 ------- 1 102.1 1.0 1 9
r 0.100038 101 0 ack 40 C------ 0 102.0 0.0 0 6
+ 0.100038 0 101 tcp 1500 ------N 0 0.0 102.0 2 12
- 0.100038 0 101 tcp 1500 ------N 0 0.0 102.0 2 12
+ 0.100038 0 101 tcp 1500 ------N 0 0.0 102.0 3 13
- 0.100207 0 101 tcp 1500 ------N 0 0.0 102.0 3 13
r 0.101092 101 0 ack 40 ------- 0 102.0 0.0 1 7
+ 0.101092 0 101 tcp 1500 ------N 0 0.0 102.0 4 14
- 0.101092 0 101 tcp 1500 ------N 0 0.0 102.0 4 14
+ 0.101092 0 101 tcp 1500 ------N 0 0.0 102.0 5 15
- 0.101261 0 101 tcp 1500 ------N 0 0.0 102.0 5 15
r 0.105018 102 101 ack 40 C------ 2 102.2 2.0 0 10
+ 0.105018 101 2 ack 40 C------ 2 102.2 2.0 0 10
- 0.105018 101 2 ack 40 C------ 2 102.2 2.0 0 10
r 0.105523 102 101 ack 40 ------- 2 102.2 2.0 1 11
+ 0.105523 101 2 ack 40 ------- 2 102.2 2.0 1 11
- 0.105523 101 2 ack 40 ------- 2 102.2 2.0 1 11
r 0.120034 101 1 ack 40 C------ 1 102.1 1.0 0 8
+ 0.120034 1 101 tcp 1500 ------N 1 1.0 102.1 2 16
- 0.120034 1 101 tcp 1500 ------N 1 1.0 102.1 2 16
+ 0.120034 1 101 tcp 1500 ------N 1 1.0 102.1 3 17
- 0.120203 1 101 tcp 1500 ------N 1 1.0 102.1 3 17
r 0.120952 101 1 ack 40 ------- 1 102.1 1.0 1 9
+ 0.120952 1 101 tcp 1500 ------N 1 1.0 102.1 4 18
- 0.120952 1 101 tcp 1500 ------N 1 1.0 102.1 4 18
+ 0.120952 1 101 tcp 1500 ------N 1 1.0 102.1 5 19
- 0.121121 1 101 tcp 1500 ------N 1 1.0 102.1 5 19
r 0.125207 0 101 tcp 1500 ------N 0 0.0 102.0 2 12
+ 0.125207 101 102 tcp 1500 ------N 0 0.0 102.0 2 12
- 0.125207 101 102 tcp 1500 ------N 0 0.0 102.0 2 12
r 0.125376 0 101 tcp 1500 ------N 0 0.0 102.0 3 13
+ 0.125376 101 102 tcp 1500 ------N 0 0.0 102.0 3 13
- 0.125661 101 102 tcp 1500 ------N 0 0.0 102.0 3 13
r 0.126261 0 101 tcp 1500 ------N 0 0.0 102.0 4 14
+ 0.126261 101 102 tcp 1500 ------N 0 0.0 102.0 4 14
- 0.126261 101 102 tcp 1500 ------N 0 0.0 102.0 4 14
r 0.12643 0 101 tcp 1500 ------N 0 0.0 102.0 5 15
+ 0.12643 101 102 tcp 1500 ------N 0 0.0 102.0 5 15
- 0.126715 101 102 tcp 1500 ------N 0 0.0 102.0 5 15
+ 0.13 3 101 tcp 40 C------ 3 3.0 102.3 0 20
- 0.13 3 101 tcp 40 C------ 3 3.0 102.3 0 20
+ 0.13 3 101 tcp 1500 ------N 3 3.0 102.3 1 21
- 0.130005 3 101 tcp 1500 ------N 3 3.0 102.3 1 21
r 0.130023 101 2 ack 40 C------ 2 102.2 2.0 0 10
+ 0.130023 2 101 tcp 1500 ------N 2 2.0 102.2 2 22
- 0.130023 2 101 tcp 1500 ------N 2 2.0 102.2 2 22
+ 0.130023 2 101 tcp 1500 ------N 2 2.0 102.2 3 23
- 0.130192 2 101 tcp 1500 ------N 2 2.0 102.2 3 23
r 0.130527 101 2 ack 40 ------- 2 102.2 2.0 1 11
+ 0.130527 2 101 tcp 1500 ------N 2 2.0 102.2 4 24
- 0.130527 2 101 tcp 1500 ------N 2 2.0 102.2 4 24
+ 0.130527 2 101 tcp 1500 ------N 2 2.0 102.2 5 25
- 0.130696 2 101 tcp 1500 ------N 2 2.0 102.2 5 25
r 0.145203 1 101 tcp 1500 ------N 1 1.0 102.1 2 16
+ 0.145203 101 102 tcp 1500 ------N 1 1.0 102.1 2 16
- 0.145203 101 102 tcp 1500 ------N 1 1.0 102.1 2 16
r 0.145372 1 101 tcp 1500 ------N 1 1.0 102.1 3 17
+ 0.145372 101 102 tcp 1500 ------N 1 1.0 102.1 3 17
- 0.14556 101 102 tcp 1500 ------N 1 1.0 102.1 3 17
r 0.146121 1 101 tcp 1500 ------N 1 1.0 102.1 4 18
+ 0.146121 101 102 tcp 1500 ------N 1 1.0 102.1 4 18
- 0.146121 101 102 tcp 1500 ------N 1 1.0 102.1 4 18
r 0.14629 1 101 tcp 1500 ------N 1 1.0 102.1 5 19
+ 0.14629 101 102 tcp 1500 ------N 1 1.0 102.1 5 19
- 0.146478 101 102 tcp 1500 ------N 1 1.0 102.1 5 19
r 0.150661 101 102 tcp 1500 ------N 0 0.0 102.0 2 12
+ 0.150661 102 101 ack 40 ------- 0 102.0 0.0 2 26
- 0.150661 102 101 ack 40 ------- 0 102.0 0.0 2 26
r 0.151116 101 102 tcp 1500 ------N 0 0.0 102.0 3 13
+ 0.151116 102 101 ack 40 ------- 0 102.0 0.0 3 27
- 0.151116 102 101 ack 40 ------- 0 102.0 0.0 3 27
r 0.151715 101 102 tcp 1500 ------N 0 0.0 102.0 4 14
+ 0.151715 102 101 ack 40 ------- 0 102.0 0.0 4 28
- 0.151715 102 101 ack 40 ------- 0 102.0 0.0 4 28
r 0.15217 101 102 tcp 1500 ------N 0 0.0 102.0 5 15
+ 0.15217 102 101 ack 40 ------- 0 102.0 0.0 5 29
- 0.15217 102 101 ack 40 ------- 0 102.0 0.0 5 29
r 0.155005 3 101 tcp 40 C------ 3 3.0 102.3 0 20
+ 0.155005 101 102 tcp 40 C------ 3 3.0 102.3 0 20
- 0.155005 101 102 tcp 40 C------ 3 3.0 102.3 0 20
r 0.155174 3 101 tcp 1500 ------N 3 3.0 102.3 1 21
+ 0.155174 101 102 tcp 1500 ------N 3 3.0 102.3 1 21
- 0.155174 101 102 tcp 1500 ------N 3 3.0 102.3 1 21
r 0.155192 2 101 tcp 1500 ------N 2 2.0 102.2 2 22
+ 0.155192 101 102 tcp 1500 ------N 2 2.0 102.2 2 22
r 0.155361 2 101 tcp 1500 ------N 2 2.0 102.2 3 23
+ 0.155361 101 102 tcp 1500 ------N 2 2.0 102.2 3 23
r 0.155696 2 101 tcp 1500 ------N 2 2.0 102.2 4 24
+ 0.155696 101 102 tcp 1500 ------N 2 2.0 102.2 4 24
- 0.155729 101 102 tcp 1500 ------N 2 2.0 102.2 2 22
r 0.155865 2 101 tcp 1500 ------N 2 2.0 102.2 5 25
+ 0.155865 101 102 tcp 1500 ------N 2 2.0 102.2 5 25
- 0.156285 101 102 tcp 1500 ------N 2 2.0 102.2 3 23
- 0.15684 101 102 tcp 1500 ------N 2 2.0 102.2 4 24
- 0.157396 101 102 tcp 1500 ------N 2 2.0 102.2 5 25
r 0.17056 101 102 tcp 1500 ------N 1 1.0 102.1 2 16
+ 0.17056 102 101 ack 40 ------- 1 102.1 1.0 2 30
- 0.17056 102 101 ack 40 ------- 1 102.1 1.0 2 30
r 0.170917 101 102 tcp 1500 ------N 1 1.0 102.1 3 17
+ 0.170917 102 101 ack 40 ------- 1 102.1 1.0 3 31
- 0.170917 102 101 ack 40 ------- 1 102.1 1.0 3 31
r 0.171478 101 102 tcp 1500 ------N 1 1.0 102.1 4 18
+ 0.171478 102 101 ack 40 ------- 1 102.1 1.0 4 32
- 0.171478 102 101 ack 40 ------- 1 102.1 1.0 4 32
r 0.171835 101 102 tcp 1500 ------N 1 1.0 102.1 5 19
+ 0.171835 102 101 ack 40 ------- 1 102.1 1.0 5 33
- 0.171835 102 101 ack 40 ------- 1 102.1 1.0 5 33
r 0.175666 102 101 ack 40 ------- 0 102.0 0.0 2 26
+ 0.175666 101 0 ack 40 ------- 0 102.0 0.0 2 26
- 0.175666 101 0 ack 40 ------- 0 102.0 0.0 2 26
r 0.17612 102 101 ack 40 ------- 0 102.0 0.0 3 27
+ 0.17612 101 0 ack 40 ------- 0 102.0 0.0 3 27
- 0.17612 101 0 ack 40 ------- 0 102.0 0.0 3 27
r 0.17672 102 101 ack 40 ------- 0 102.0 0.0 4 28
+ 0.17672 101 0 ack 40 ------- 0 102.0 0.0 4 28
- 0.17672 101 0 ack 40 ------- 0 102.0 0.0 4 28
r 0.177174 102 101 ack 40 ------- 0 102.0 0.0 5 29
+ 0.177174 101 0 ack 40 ------- 0 102.0 0.0 5 29
- 0.177174 101 0 ack 40 ------- 0 102.0 0.0 5 29
r 0.180019 101 102 tcp 40 C------ 3 3.0 102.3 0 20
+ 0.180019 102 101 ack 40 C------ 3 102.3 3.0 0 34
- 0.180019 102 101 ack 40 C------ 3 102.3 3.0 0 34
r 0.180729 101 102 tcp 1500 ------N 3 3.0 102.3 1 21
+ 0.180729 102 101 ack 40 ------- 3 102.3 3.0 1 35
- 0.180729 102 101 ack 40 ------- 3 102.3 3.0 1 35
r 0.181285 101 102 tcp 1500 ------N 2 2.0 102.2 2 22
+ 0.181285 102 101 ack 40 ------- 2 102.2 2.0 2 36
- 0.181285 102 101 ack 40 ------- 2 102.2 2.0 2 36
r 0.18184 101 102 tcp 1500 ------N 2 2.0 102.2 3 23
+ 0.18184 102 101 ack 40 ------- 2 102.2 2.0 3 37
- 0.18184 102 101 ack 40 ------- 2 102.2 2.0 3 37
r 0.182396 101 102 tcp 1500 ------N 2 2.0 102.2 4 24
+ 0.182396 102 101 ack 40 ------- 2 102.2 2.0 4 38
- 0.182396 102 101 ack 40 ------- 2 102.2 2.0 4 38
r 0.182951 101 102 tcp 1500 ------N 2 2.0 102.2 5 25
+ 0.182951 102 101 ack 40 ------- 2 102.2 2.0 5 39
- 0.182951 102 101 ack 40 ------- 2 102.2 2.0 5 39
+ 0.19 4 101 tcp 40 C------ 4 4.0 102.4 0 40
- 0.19 4 101 tcp 40 C------ 4 4.0 102.4 0 40
+ 0.19 4 101 tcp 1500 ------N 4 4.0 102.4 1 41
- 0.190005 4 101 tcp 1500 ------N 4 4.0 102.4 1 41
r 0.195565 102 101 ack 40 ------- 1 102.1 1.0 2 30
+ 0.195565 101 1 ack 40 ------- 1 102.1 1.0 2 30
- 0.195565 101 1 ack 40 ------- 1 102.1 1.0 2 30
r 0.195922 102 101 ack 40 ------- 1 102.1 1.0 3 31
+ 0.195922 101 1 ack 40 ------- 1 102.1 1.0 3 31
- 0.195922 101 1 ack 40 ------- 1 102.1 1.0 3 31
r 0.196482 102 101 ack 40 ------- 1 102.1 1.0 4 32
+ 0.196482 101 1 ack 40 ------- 1 102.1 1.0 4 32
- 0.196482 101 1 ack 40 ------- 1 102.1 1.0 4 32
r 0.19684 102 101 ack 40 ------- 1 102.1 1.0 5 33
+ 0.19684 101 1 ack 40 ------- 1 102.1 1.0 5 33
- 0.19684 101 1 ack 40 ------- 1 102.1 1.0 5 33
r 0.20067 101 0 ack 40 ------- 0 102.0 0.0 2 26
+ 0.20067 0 101 tcp 1500 ------N 0 0.0 102.0 6 42
- 0.20067 0 101 tcp 1500 ------N 0 0.0 102.0 6 42
+ 0.20067 0 101 tcp 1500 ------N 0 0.0 102.0 7 43
- 0.200839 0 101 tcp 1500 ------N 0 0.0 102.0 7 43
r 0.201125 101 0 ack 40 ------- 0 102.0 0.0 3 27
+ 0.201125 0 101 tcp 1500 ------N 0 0.0 102.0 8 44
- 0.201125 0 101 tcp 1500 ------N 0 0.0 102.0 8 44
+ 0.201125 0 101 tcp 1500 ------N 0 0.0 102.0 9 45
- 0.201294 0 101 tcp 1500 ------N 0 0.0 102.0 9 45
r 0.201724 101 0 ack 40 ------- 0 102.0 0.0 4 28
+ 0.201724 0 101 tcp 1500 ------N 0 0.0 102.0 10 46
- 0.201724 0 101 tcp 1500 ------N 0 0.0 102.0 10 46
+ 0.201724 0 101 tcp 1500 ------N 0 0.0 102.0 11 47
- 0.201893 0 101 tcp 1500 ------N 0 0.0 102.0 11 47
r 0.202179 101 0 ack 40 ------- 0 102.0 0.0 5 29
+ 0.202179 0 101 tcp 1500 ------N 0 0.0 102.0 12 48
- 0.202179 0 101 tcp 1500 ------N 0 0.0 102.0 12 48
+ 0.202179 0 101 tcp 1500 ------N 0 0.0 102.0 13 49
- 0.202348 0 101 tcp 1500 ------N 0 0.0 102.0 13 49
r 0.205024 102 101 ack 40 C------ 3 102.3 3.0 0 34
+ 0.205024 101 3 ack 40 C------ 3 102.3 3.0 0 34
- 0.205024 101 3 ack 40 C------ 3 102.3 3.0 0 34
r 0.205734 102 101 ack 40 ------- 3 102.3 3.0 1 35
+ 0.205734 101 3 ack 40 ------- 3 102.3 3.0 1 35
- 0.205734 101 3 ack 40 ------- 3 102.3 3.0 1 35
r 0.206289 102 101 ack 40 ------- 2 102.2 2.0 2 36
+ 0.206289 101 2 ack 40 ------- 2 102.2 2.0 2 36
- 0.206289 101 2 ack 40 ------- 2 102.2 2.0 2 36
r 0.206845 102 101 ack 40 ------- 2 102.2 2.0 3 37
+ 0.206845 101 2 ack 40 ------- 2 102.2 2.0 3 37
- 0.206845 101 2 ack 40 ------- 2 102.2 2.0 3 37
r 0.2074 102 101 ack 40 ------- 2 102.2 2.0 4 38
+ 0.2074 101 2 ack 40 ------- 2 102.2 2.0 4 38
- 0.2074 101 2 ack 40 ------- 2 102.2 2.0 4 38
r 0.207956 102 101 ack 40 ------- 2 102.2 2.0 5 39
+ 0.207956 101 2 ack 40 ------- 2 102.2 2.0 5 39
- 0.207956 101 2 ack 40 ------- 2 102.2 2.0 5 39
r 0.215005 4 101 tcp 40 C------ 4 4.0 102.4 0 40
+ 0.215005 101 102 tcp 40 C------ 4 4.0 102.4 0 40
- 0.215005 101 102 tcp 40 C------ 4 4.0 102.4 0 40
r 0.215174 4 101 tcp 1500 ------N 4 4.0 102.4 1 41
+ 0.215174 101 102 tcp 1500 ------N 4 4.0 102.4 1 41
- 0.215174 101 102 tcp 1500 ------N 4 4.0 102.4 1 41
r 0.220569 101 1 ack 40 ------- 1 102.1 1.0 2 30
+ 0.220569 1 101 tcp 1500 ------N 1 1.0 102.1 6 50
- 0.220569 1 101 tcp 1500 ------N 1 1.0 102.1 6 50
+ 0.220569 1 101 tcp 1500 ------N 1 1.0 102.1 7 51
- 0.220738 1 101 tcp 1500 ------N 1 1.0 102.1 7 51
r 0.220926 101 1 ack 40 ------- 1 102.1 1.0 3 31
+ 0.220926 1 101 tcp 1500 ------N 1 1.0 102.1 8 52
- 0.220926 1 101 tcp 1500 ------N 1 1.0 102.1 8 52
+ 0.220926 1 101 tcp 1500 ------N 1 1.0 102.1 9 53
- 0.221095 1 101 tcp 1500 ------N 1 1.0 102.1 9 53
r 0.221487 101 1 ack 40 ------- 1 102.1 1.0 4 32
+ 0.221487 1 101 tcp 1500 ------N 1 1.0 102.1 10 54
- 0.221487 1 101 tcp 1500 ------N 1 1.0 102.1 10 54
+ 0.221487 1 101 tcp 1500 ------N 1 1.0 102.1 11 55
- 0.221656 1 101 tcp 1500 ------N 1 1.0 102.1 11 55
r 0.221844 101 1 ack 40 ------- 1 102.1 1.0 5 33
+ 0.221844 1 101 tcp 1500 ------N 1 1.0 102.1 12 56
- 0.221844 1 101 tcp 1500 ------N 1 1.0 102.1 12 56
+ 0.221844 1 101 tcp 1500 ------N 1 1.0 102.1 13 57
- 0.222013 1 101 tcp 1500 ------N 1 1.0 102.1 13 57
r 0.225839 0 101 tcp 1500 ------N 0 0.0 102.0 6 42
+ 0.225839 101 102 tcp 1500 ------N 0 0.0 102.0 6 42
- 0.225839 101 102 tcp 1500 ------N 0 0.0 102.0 6 42
r 0.226008 0 101 tcp 1500 ------N 0 0.0 102.0 7 43
+ 0.226008 101 102 tcp 1500 ------N 0 0.0 102.0 7 43
- 0.226184 101 102 tcp 1500 ------N 0 0.0 102.0 7 43
r 0.226294 0 101 tcp 1500 ------N 0 0.0 102.0 8 44
+ 0.226294 101 102 tcp 1500 ------N 0 0.0 102.0 8 44
r 0.226463 0 101 tcp 1500 ------N 0 0.0 102.0 9 45
+ 0.226463 101 102 tcp 1500 ------N 0 0.0 102.0 9 45
- 0.226529 101 102 tcp 1500 ------N 0 0.0 102.0 8 44
- 0.226874 101 102 tcp 1500 ------N 0 0.0 102.0 9 45
r 0.226893 0 101 tcp 1500 ------N 0 0.0 102.0 10 46
+ 0.226893 101 102 tcp 1500 ------N 0 0.0 102.0 10 46
r 0.227062 0 101 tcp 1500 ------N 0 0.0 102.0 11 47
+ 0.227062 101 102 tcp 1500 ------N 0 0.0 102.0 11 47
- 0.227219 101 102 tcp 1500 ------N 0 0.0 102.0 10 46
r 0.227348 0 101 tcp 1500 ------N 0 0.0 102.0 12 48
+ 0.227348 101 102 tcp 1500 ------N 0 0.0 102.0 12 48
r 0.227517 0 101 tcp 1500 ------N 0 0.0 102.0 13 49
+ 0.227517 101 102 tcp 1500 ------N 0 0.0 102.0 13 49
- 0.227563 101 102 tcp 1500 ------N 0 0.0 102.0 11 47
- 0.227908 101 102 tcp 1500 ------N 0 0.0 102.0 12 48
- 0.228253 101 102 tcp 1500 ------N 0 0.0 102.0 13 49
r 0.230028 101 3 ack 40 C------ 3 102.3 3.0 0 34
+ 0.230028 3 101 tcp 1500 ------N 3 3.0 102.3 2 58
- 0.230028 3 101 tcp 1500 ------N 3 3.0 102.3 2 58
+ 0.230028 3 101 tcp 1500 ------N 3 3.0 102.3 3 59
- 0.230197 3 101 tcp 1500 ------N 3 3.0 102.3 3 59
r 0.230738 101 3 ack 40 ------- 3 102.3 3.0 1 35
+ 0.230738 3 101 tcp 1500 ------N 3 3.0 102.3 4 60
- 0.230738 3 101 tcp 1500 ------N 3 3.0 102.3 4 60
+ 0.230738 3 101 tcp 1500 ------N 3 3.0 102.3 5 61
- 0.230907 3 101 tcp 1500 ------N 3 3.0 102.3 5 61
r 0.231294 101 2 ack 40 ------- 2 102.2 2.0 2 36
+ 0.231294 2 101 tcp 1500 ------N 2 2.0 102.2 6 62
- 0.231294 2 101 tcp 1500 ------N 2 2.0 102.2 6 62
+ 0.231294 2 101 tcp 1500 ------N 2 2.0 102.2 7 63
- 0.231463 2 101 tcp 1500 ------N 2 2.0 102.2 7 63
r 0.231849 101 2 ack 40 ------- 2 102.2 2.0 3 37
+ 0.231849 2 101 tcp 1500 ------N 2 2.0 102.2 8 64
- 0.231849 2 101 tcp 1500 ------N 2 2.0 102.2 8 64
+ 0.231849 2 101 tcp 1500 ------N 2 2.0 102.2 9 65
- 0.232018 2 101 tcp 1500 ------N 2 2.0 102.2 9 65
r 0.232405 101 2 ack 40 ------- 2 102.2 2.0 4 38
+ 0.232405 2 101 tcp 1500 ------N 2 2.0 102.2 10 66
- 0.232405 2 101 tcp 1500 ------N 2 2.0 102.2 10 66
+ 0.232405 2 101 tcp 1500 ------N 2 2.0 102.2 11 67
- 0.232574 2 101 tcp 1500 ------N 2 2.0 102.2 11 67
r 0.23296 101 2 ack 40 ------- 2 102.2 2.0 5 39
+ 0.23296 2 101 tcp 1500 ------N 2 2.0 102.2 12 68
- 0.23296 2 101 tcp 1500 ------N 2 2.0 102.2 12 68
+ 0.23296 2 101 tcp 1500 ------N 2 2.0 102.2 13 69
- 0.233129 2 101 tcp 1500 ------N 2 2.0 102.2 13 69
r 0.240043 101 102 tcp 40 C------ 4 4.0 102.4 0 40
+ 0.240043 102 101 ack 40 C------ 4 102.4 4.0 0 70
- 0.240043 102 101 ack 40 C------ 4 102.4 4.0 0 70
r 0.241602 101 102 tcp 1500 ------N 4 4.0 102.4 1 41
+ 0.241602 102 101 ack 40 ------- 4 102.4 4.0 1 71
- 0.241602 102 101 ack 40 ------- 4 102.4 4.0 1 71
r 0.245738 1 101 tcp 1500 ------N 1 1.0 102.1 6 50
+ 0.245738 101 102 tcp 1500 ------N 1 1.0 102.1 6 50
- 0.245738 101 102 tcp 1500 ------N 1 1.0 102.1 6 50
r 0.245907 1 101 tcp 1500 ------N 1 1.0 102.1 7 51
+ 0.245907 101 102 tcp 1500 ------N 1 1.0 102.1 7 51
- 0.246072 101 102 tcp 1500 ------N 1 1.0 102.1 7 51
r 0.246095 1 101 tcp 1500 ------N 1 1.0 102.1 8 52
+ 0.246095 101 102 tcp 1500 ------N 1 1.0 102.1 8 52
r 0.246264 1 101 tcp 1500 ------N 1 1.0 102.1 9 53
+ 0.246264 101 102 tcp 1500 ------N 1 1.0 102.1 9 53
- 0.246405 101 102 tcp 1500 ------N 1 1.0 102.1 8 52
r 0.246656 1 101 tcp 1500 ------N 1 1.0 102.1 10 54
+ 0.246656 101 102 tcp 1500 ------N 1 1.0 102.1 10 54
- 0.246738 101 102 tcp 1500 ------N 1 1.0 102.1 9 53
r 0.246825 1 101 tcp 1500 ------N 1 1.0 102.1 11 55
+ 0.246825 101 102 tcp 1500 ------N 1 1.0 102.1 11 55
r 0.247013 1 101 tcp 1500 ------N 1 1.0 102.1 12 56
+ 0.247013 101 102 tcp 1500 ------N 1 1.0 102.1 12 56
- 0.247072 101 102 tcp 1500 ------N 1 1.0 102.1 10 54
r 0.247182 1 101 tcp 1500 ------N 1 1.0 102.1 13 57
+ 0.247182 101 102 tcp 1500 ------N 1 1.0 102.1 13 57
- 0.247405 101 102 tcp 1500 ------N 1 1.0 102.1 11 55
- 0.247738 101 102 tcp 1500 ------N 1 1.0 102.1 12 56
- 0.248072 101 102 tcp 1500 ------N 1 1.0 102.1 13 57
r 0.251184 101 102 tcp 1500 ------N 0 0.0 102.0 6 42
+ 0.251184 102 101 ack 40 ------- 0 102.0 0.0 6 72
- 0.251184 102 101 ack 40 ------- 0 102.0 0.0 6 72
r 0.251529 101 102 tcp 1500 ------N 0 0.0 102.0 7 43
+ 0.251529 102 101 ack 40 ------- 0 102.0 0.0 7 73
- 0.251529 102 101 ack 40 ------- 0 102.0 0.0 7 73
r 0.251874 101 102 tcp 1500 ------N 0 0.0 102.0 8 44
+ 0.251874 102 101 ack 40 ------- 0 102.0 0.0 8 74
- 0.251874 102 101 ack 40 ------- 0 102.0 0.0 8 74
r 0.252219 101 102 tcp 1500 ------N 0 0.0 102.0 9 45
+ 0.252219 102 101 ack 40 ------- 0 102.0 0.0 9 75
- 0.252219 102 101 ack 40 ------- 0 102.0 0.0 9 75
r 0.252563 101 102 tcp 1500 ------N 0 0.0 102.0 10 46
+ 0.252563 102 101 ack 40 ------- 0 102.0 0.0 10 76
- 0.252563 102 101 ack 40 ------- 0 102.0 0.0 10 76
r 0.252908 101 102 tcp 1500 ------N 0 0.0 102.0 11 47
+ 0.252908 102 101 ack 40 ------- 0 102.0 0.0 11 77
- 0.252908 102 101 ack 40 ------- 0 102.0 0.0 11 77
r 0.253253 101 102 tcp 1500 ------N 0 0.0 102.0 12 48
+ 0.253253 102 101 ack 40 ------- 0 102.0 0.0 12 78
- 0.253253 102 101 ack 40 ------- 0 102.0 0.0 12 78
r 0.253598 101 102 tcp 1500 ------N 0 0.0 102.0 13 49
+ 0.253598 102 101 ack 40 ------- 0 102.0 0.0 13 79
- 0.253598 102 101 ack 40 ------- 0 102.0 0.0 13 79
r 0.255197 3 101 tcp 1500 ------N 3 3.0 102.3 2 58
+ 0.255197 101 102 tcp 1500 ------N 3 3.0 102.3 2 58
- 0.255197 101 102 tcp 1500 ------N 3 3.0 102.3 2 58
r 0.255366 3 101 tcp 1500 ------N 3 3.0 102.3 3 59
+ 0.255366 101 102 tcp 1500 ------N 3 3.0 102.3 3 59
- 0.255674 101 102 tcp 1500 ------N 3 3.0 102.3 3 59
r 0.255907 3 101 tcp 1500 ------N 3 3.0 102.3 4 60
+ 0.255907 101 102 tcp 1500 ------N 3 3.0 102.3 4 60
r 0.256076 3 101 tcp 1500 ------N 3 3.0 102.3 5 61
+ 0.256076 101 102 tcp 1500 ------N 3 3.0 102.3 5 61
- 0.25615 101 102 tcp 1500 ------N 3 3.0 102.3 4 60
r 0.256463 2 101 tcp 1500 ------N 2 2.0 102.2 6 62
+ 0.256463 101 102 tcp 1500 ------N 2 2.0 102.2 6 62
- 0.256626 101 102 tcp 1500 ------N 3 3.0 102.3 5 61
r 0.256632 2 101 tcp 1500 ------N 2 2.0 102.2 7 63
+ 0.256632 101 102 tcp 1500 ------N 2 2.0 102.2 7 63
r 0.257018 2 101 tcp 1500 ------N 2 2.0 102.2 8 64
+ 0.257018 101 102 tcp 1500 ------N 2 2.0 102.2 8 64
- 0.257102 101 102 tcp 1500 ------N 2 2.0 102.2 6 62
r 0.257187 2 101 tcp 1500 ------N 2 2.0 102.2 9 65
+ 0.257187 101 102 tcp 1500 ------N 2 2.0 102.2 9 65
r 0.257574 2 101 tcp 1500 ------N 2 2.0 102.2 10 66
+ 0.257574 101 102 tcp 1500 ------N 2 2.0 102.2 10 66
- 0.257578 101 102 tcp 1500 ------N 2 2.0 102.2 7 63
r 0.257743 2 101 tcp 1500 ------N 2 2.0 102.2 11 67
+ 0.257743 101 102 tcp 1500 ------N 2 2.0 102.2 11 67
- 0.258054 101 102 tcp 1500 ------N 2 2.0 102.2 8 64
r 0.258129 2 101 tcp 1500 ------N 2 2.0 102.2 12 68
+ 0.258129 101 102 tcp 1500 ------N 2 2.0 102.2 12 68
r 0.258298 2 101 tcp 1500 ------N 2 2.0 102.2 13 69
+ 0.258298 101 102 tcp 1500 ------N 2 2.0 102.2 13 69
- 0.258531 101 102 tcp 1500 ------N 2 2.0 102.2 9 65
- 0.259007 101 102 tcp 1500 ------N 2 2.0 102.2 10 66
- 0.259483 101 102 tcp 1500 ------N 2 2.0 102.2 11 67
- 0.259959 101 102 tcp 1500 ------N 2 2.0 102.2 12 68
- 0.260435 101 102 tcp 1500 ------N 2 2.0 102.2 13 69
r 0.265047 102 101 ack 40 C------ 4 102.4 4.0 0 70
+ 0.265047 101 4 ack 40 C------ 4 102.4 4.0 0 70
- 0.265047 101 4 ack 40 C------ 4 102.4 4.0 0 70
r 0.266607 102 101 ack 40 ------- 4 102.4 4.0 1 71
+ 0.266607 101 4 ack 40 ------- 4 102.4 4.0 1 71
- 0.266607 101 4 ack 40 ------- 4 102.4 4.0 1 71
r 0.271072 101 102 tcp 1500 ------N 1 1.0 102.1 6 50
+ 0.271072 102 101 ack 40 ------- 1 102.1 1.0 6 80
- 0.271072 102 101 ack 40 ------- 1 102.1 1.0 6 80
r 0.271405 101 102 tcp 1500 ------N 1 1.0 102.1 7 51
+ 0.271405 102 101 ack 40 ------- 1 102.1 1.0 7 81
- 0.271405 102 101 ack 40 ------- 1 102.1 1.0 7 81
r 0.271738 101 102 tcp 1500 ------N 1 1.0 102.1 8 52
+ 0.271738 102 101 ack 40 ------- 1 102.1 1.0 8 82
- 0.271738 102 101 ack 40 ------- 1 102.1 1.0 8 82
r 0.272072 101 102 tcp 1500 ------N 1 1.0 102.1 9 53
+ 0.272072 102 101 ack 40 ------- 1 102.1 1.0 9 83
- 0.272072 102 101 ack 40 ------- 1 102.1 1.0 9 83
r 0.272405 101 102 tcp 1500 ------N 1 1.0 102.1 10 54
+ 0.272405 102 101 ack 40 ------- 1 102.1 1.0 10 84
- 0.272405 102 101 ack 40 ------- 1 102.1 1.0 10 84
r 0.272738 101 102 tcp 1500 ------N 1 1.0 102.1 11 55
+ 0.272738 102 101 ack 40 ------- 1 102.1 1.0 11 85
- 0.272738 102 101 ack 40 ------- 1 102.1 1.0 11 85
r 0.273072 101 102 tcp 1500 ------N 1 1.0 102.1 12 56
+ 0.273072 102 101 ack 40 ------- 1 102.1 1.0 12 86
- 0.273072 102 101 ack 40 ------- 1 102.1 1.0 12 86
r 0.273405 101 102 tcp 1500 ------N 1 1.0 102.1 13 57
+ 0.273405 102 101 ack 40 ------- 1 102.1 1.0 13 87
- 0.273405 102 101 ack 40 ------- 1 102.1 1.0 13 87
r 0.276189 102 101 ack 40 ------- 0 102.0 0.0 6 72
+ 0.276189 101 0 ack 40 ------- 0 102.0 0.0 6 72
- 0.276189 101 0 ack 40 ------- 0 102.0 0.0 6 72
r 0.276534 102 101 ack 40 ------- 0 102.0 0.0 7 73
+ 0.276534 101 0 ack 40 ------- 0 102.0 0.0 7 73
- 0.276534 101 0 ack 40 ------- 0 102.0 0.0 7 73
r 0.276878 102 101 ack 40 ------- 0 102.0 0.0 8 74
+ 0.276878 101 0 ack 40 ------- 0 102.0 0.0 8 74
- 0.276878 101 0 ack 40 ------- 0 102.0 0.0 8 74
r 0.277223 102 101 ack 40 ------- 0 102.0 0.0 9 75
+ 0.277223 101 0 ack 40 ------- 0 102.0 0.0 9 75
- 0.277223 101 0 ack 40 ------- 0 102.0 0.0 9 75
r 0.277568 102 101 ack 40 ------- 0 102.0 0.0 10 76
+ 0.277568 101 0 ack 40 ------- 0 102.0 0.0 10 76
- 0.277568 101 0 ack 40 ------- 0 102.0 0.0 10 76
r 0.277913 102 101 ack 40 ------- 0 102.0 0.0 11 77
+ 0.277913 101 0 ack 40 ------- 0 102.0 0.0 11 77
- 0.277913 101 0 ack 40 ------- 0 102.0 0.0 11 77
r 0.278258 102 101 ack 40 ------- 0 102.0 0.0 12 78
+ 0.278258 101 0 ack 40 ------- 0 102.0 0.0 12 78
- 0.278258 101 0 ack 40 ------- 0 102.0 0.0 12 78
r 0.278602 102 101 ack 40 ------- 0 102.0 0.0 13 79
+ 0.278602 101 0 ack 40 ------- 0 102.0 0.0 13 79
- 0.278602 101 0 ack 40 ------- 0 102.0 0.0 13 79
r 0.280674 101 102 tcp 1500 ------N 3 3.0 102.3 2 58
+ 0.280674 102 101 ack 40 ------- 3 102.3 3.0 2 88
- 0.280674 102 101 ack 40 ------- 3 102.3 3.0 2 88
r 0.28115 101 102 tcp 1500 ------N 3 3.0 102.3 3 59
+ 0.28115 102 101 ack 40 ------- 3 102.3 3.0 3 89
- 0.28115 102 101 ack 40 ------- 3 102.3 3.0 3 89
r 0.281626 101 102 tcp 1500 ------N 3 3.0 102.3 4 60
+ 0.281626 102 101 ack 40 ------- 3 102.3 3.0 4 90
- 0.281626 102 101 ack 40 ------- 3 102.3 3.0 4 90
r 0.282102 101 102 tcp 1500 ------N 3 3.0 102.3 5 61
+ 0.282102 102 101 ack 40 ------- 3 102.3 3.0 5 91
- 0.282102 102 101 ack 40 ------- 3 102.3 3.0 5 91
r 0.282578 101 102 tcp 1500 ------N 2 2.0 102.2 6 62
+ 0.282578 102 101 ack 40 ------- 2 102.2 2.0 6 92
- 0.282578 102 101 ack 40 ------- 2 102.2 2.0 6 92
r 0.283054 101 102 tcp 1500 ------N 2 2.0 102.2 7 63
+ 0.283054 102 101 ack 40 ------- 2 102.2 2.0 7 93
- 0.283054 102 101 ack 40 ------- 2 102.2 2.0 7 93
r 0.283531 101 102 tcp 1500 ------N 2 2.0 102.2 8 64
+ 0.283531 102 101 ack 40 ------- 2 102.2 2.0 8 94
- 0.283531 102 101 ack 40 ------- 2 102.2 2.0 8 94
r 0.284007 101 102 tcp 1500 ------N 2 2.0 102.2 9 65
+ 0.284007 102 101 ack 40 ------- 2 102.2 2.0 9 95
- 0.284007 102 101 ack 40 ------- 2 102.2 2.0 9 95
r 0.284483 101 102 tcp 1500 ------N 2 2.0 102.2 10 66
+ 0.284483 102 101 ack 40 ------- 2 102.2 2.0 10 96
- 0.284483 102 101 ack 40 ------- 2 102.2 2.0 10 96
r 0.284959 101 102 tcp 1500 ------N 2 2.0 102.2 11 67
+ 0.284959 102 101 ack 40 ------- 2 102.2 2.0 11 97
- 0.284959 102 101 ack 40 ------- 2 102.2 2.0 11 97
r 0.285435 101 102 tcp 1500 ------N 2 2.0 102.2 12 68
+ 0.285435 102 101 ack 40 ------- 2 102.2 2.0 12 98
- 0.285435 102 101 ack 40 ------- 2 102.2 2.0 12 98
r 0.28606 101 102 tcp 1500 ------N 2 2.0 102.2 13 69
+ 0.28606 102 101 ack 40 ------- 2 102.2 2.0 13 99
- 0.28606 102 101 ack 40 ------- 2 102.2 2.0 13 99
r 0.290052 101 4 ack 40 C------ 4 102.4 4.0 0 70
+ 0.290052 4 101 tcp 1500 ------N 4 4.0 102.4 2 100
- 0.290052 4 101 tcp 1500 ------N 4 4.0 102.4 2 100
+ 0.290052 4 101 tcp 1500 ------N 4 4.0 102.4 3 101
- 0.290221 4 101 tcp 1500 ------N 4 4.0 102.4 3 101
r 0.291611 101 4 ack 40 ------- 4 102.4 4.0 1 71
+ 0.291611 4 101 tcp 1500 ------N 4 4.0 102.4 4 102
- 0.291611 4 101 tcp 1500 ------N 4 4.0 102.4 4 102
+ 0.291611 4 101 tcp 1500 ------N 4 4.0 102.4 5 103
- 0.29178 4 101 tcp 1500 ------N 4 4.0 102.4 5 103
r 0.296076 102 101 ack 40 ------- 1 102.1 1.0 6 80
+ 0.296076 101 1 ack 40 ------- 1 102.1 1.0 6 80
- 0.296076 101 1 ack 40 ------- 1 102.1 1.0 6 80
r 0.296409 102 101 ack 40 ------- 1 102.1 1.0 7 81
+ 0.296409 101 1 ack 40 ------- 1 102.1 1.0 7 81
- 0.296409 101 1 ack 40 ------- 1 102.1 1.0 7 81
r 0.296743 102 101 ack 40 ------- 1 102.1 1.0 8 82
+ 0.296743 101 1 ack 40 ------- 1 102.1 1.0 8 82
- 0.296743 101 1 ack 40 ------- 1 102.1 1.0 8 82
r 0.297076 102 101 ack 40 ------- 1 102.1 1.0 9 83
+ 0.297076 101 1 ack 40 ------- 1 102.1 1.0 9 83
- 0.297076 101 1 ack 40 ------- 1 102.1 1.0 9 83
r 0.297409 102 101 ack 40 ------- 1 102.1 1.0 10 84
+ 0.297409 101 1 ack 40 ------- 1 102.1 1.0 10 84
- 0.297409 101 1 ack 40 ------- 1 102.1 1.0 10 84
r 0.297743 102 101 ack 40 ------- 1 102.1 1.0 11 85
+ 0.297743 101 1 ack 40 ------- 1 102.1 1.0 11 85
- 0.297743 101 1 ack 40 ------- 1 102.1 1.0 11 85
r 0.298076 102 101 ack 40 ------- 1 102.1 1.0 12 86
+ 0.298076 101 1 ack 40 ------- 1 102.1 1.0 12 86
- 0.298076 101 1 ack 40 ------- 1 102.1 1.0 12 86
r 0.298409 102 101 ack 40 ------- 1 102.1 1.0 13 87
+ 0.298409 101 1 ack 40 ------- 1 102.1 1.0 13 87
- 0.298409 101 1 ack 40 ------- 1 102.1 1.0 13 87
r 0.301193 101 0 ack 40 ------- 0 102.0 0.0 6 72
+ 0.301193 0 101 tcp 1500 ------N 0 0.0 102.0 14 104
- 0.301193 0 101 tcp 1500 ------N 0 0.0 102.0 14 104
+ 0.301193 0 101 tcp 1500 ------N 0 0.0 102.0 15 105
- 0.301362 0 101 tcp 1500 ------N 0 0.0 102.0 15 105
r 0.301538 101 0 ack 40 ------- 0 102.0 0.0 7 73
+ 0.301538 0 101 tcp 1500 ------N 0 0.0 102.0 16 106
- 0.301538 0 101 tcp 1500 ------N 0 0.0 102.0 16 106
+ 0.301538 0 101 tcp 1500 ------N 0 0.0 102.0 17 107
- 0.301707 0 101 tcp 1500 ------N 0 0.0 102.0 17 107
r 0.301883 101 0 ack 40 ------- 0 102.0 0.0 8 74
+ 0.301883 0 101 tcp 1500 ------N 0 0.0 102.0 18 108
- 0.301883 0 101 tcp 1500 ------N 0 0.0 102.0 18 108
+ 0.301883 0 101 tcp 1500 ------N 0 0.0 102.0 19 109
- 0.302052 0 101 tcp 1500 ------N 0 0.0 102.0 19 109
r 0.302228 101 0 ack 40 ------- 0 102.0 0.0 9 75
+ 0.302228 0 101 tcp 1500 ------N 0 0.0 102.0 20 110
- 0.302228 0 101 tcp 1500 ------N 0 0.0 102.0 20 110
+ 0.302228 0 101 tcp 1500 ------N 0 0.0 102.0 21 111
- 0.302397 0 101 tcp 1500 ------N 0 0.0 102.0 21 111
r 0.302573 101 0 ack 40 ------- 0 102.0 0.0 10 76
+ 0.302573 0 101 tcp 1500 ------N 0 0.0 102.0 22 112
- 0.302573 0 101 tcp 1500 ------N 0 0.0 102.0 22 112
+ 0.302573 0 101 tcp 1500 ------N 0 0.0 102.0 23 113
- 0.302742 0 101 tcp 1500 ------N 0 0.0 102.0 23 113
r 0.302917 101 0 ack 40 ------- 0 102.0 0.0 11 77
+ 0.302917 0 101 tcp 1500 ------N 0 0.0 102.0 24 114
- 0.302917 0 101 tcp 1500 ------N 0 0.0 102.0 24 114
+ 0.302917 0 101 tcp 1500 ------N 0 0.0 102.0 25 115
- 0.303086 0 101 tcp 1500 ------N 0 0.0 102.0 25 115
r 0.303262 101 0 ack 40 ------- 0 102.0 0.0 12 78
+ 0.303262 0 101 tcp 1500 ------N 0 0.0 102.0 26 116
- 0.303262 0 101 tcp 1500 ------N 0 0.0 102.0 26 116
+ 0.303262 0 101 tcp 1500 ------N 0 0.0 102.0 27 117
- 0.303431 0 101 tcp 1500 ------N 0 0.0 102.0 27 117
r 0.303607 101 0 ack 40 ------- 0 102.0 0.0 13 79
+ 0.303607 0 101 tcp 1500 ------N 0 0.0 102.0 28 118
- 0.303607 0 101 tcp 1500 ------N 0 0.0 102.0 28 118
+ 0.303607 0 101 tcp 1500 ------N 0 0.0 102.0 29 119
- 0.303776 0 101 tcp 1500 ------N 0 0.0 102.0 29 119
r 0.305678 102 101 ack 40 ------- 3 102.3 3.0 2 88
+ 0.305678 101 3 ack 40 ------- 3 102.3 3.0 2 88
- 0.305678 101 3 ack 40 ------- 3 102.3 3.0 2 88